+ 0 0 2 tcp 40 ------- 1 0.0 3.0 0 0 0 0x0 0 0
- 0 0 2 tcp 40 ------- 1 0.0 3.0 0 0 0 0x0 0 0
r 4e-05 0 2 tcp 40 ------- 1 0.0 3.0 0 0 0 0x0 0 0
+ 4e-05 2 3 tcp 40 ------- 1 0.0 3.0 0 0 0 0x0 0 0
- 4e-05 2 3 tcp 40 ------- 1 0.0 3.0 0 0 0 0x0 0 0
r 0.10044 2 3 tcp 40 ------- 1 0.0 3.0 0 0 0 0x0 0 0
+ 0.10044 3 2 ack 40 ------- 1 3.0 0.0 0 1 0 0x0 0 0
- 0.10044 3 2 ack 40 ------- 1 3.0 0.0 0 1 0 0x0 0 0
r 0.20084 3 2 ack 40 ------- 1 3.0 0.0 0 1 0 0x0 0 0
+ 0.20084 2 0 ack 40 ------- 1 3.0 0.0 0 1 0 0x0 0 0
- 0.20084 2 0 ack 40 ------- 1 3.0 0.0 0 1 0 0x0 0 0
r 0.20088 2 0 ack 40 ------- 1 3.0 0.0 0 1 0 0x0 0 0
+ 0.20088 0 2 tcp 1040 ------- 1 0.0 3.0 1 2 0 0x0 0 0
- 0.20088 0 2 tcp 1040 ------- 1 0.0 3.0 1 2 0 0x0 0 0
+ 0.20088 0 2 tcp 1040 ------- 1 0.0 3.0 2 3 0 0x0 0 0
r 0.20192 0 2 tcp 1040 ------- 1 0.0 3.0 1 2 0 0x0 0 0
+ 0.20192 2 3 tcp 1040 ------- 1 0.0 3.0 1 2 0 0x0 0 0
- 0.20192 2 3 tcp 1040 ------- 1 0.0 3.0 1 2 0 0x0 0 0
- 0.20192 0 2 tcp 1040 ------- 1 0.0 3.0 2 3 0 0x0 0 0
r 0.20296 0 2 tcp 1040 ------- 1 0.0 3.0 2 3 0 0x0 0 0
+ 0.20296 2 3 tcp 1040 ------- 1 0.0 3.0 2 3 0 0x0 0 0
- 0.21232 2 3 tcp 1040 ------- 1 0.0 3.0 2 3 0 0x0 0 0
r 0.31232 2 3 tcp 1040 ------- 1 0.0 3.0 1 2 0 0x0 0 0
+ 0.31232 3 2 ack 40 ------- 1 3.0 0.0 1 4 0 0x0 0 0
- 0.31232 3 2 ack 40 ------- 1 3.0 0.0 1 4 0 0x0 0 0
r 0.32272 2 3 tcp 1040 ------- 1 0.0 3.0 2 3 0 0x0 0 0
+ 0.32272 3 2 ack 40 ------- 1 3.0 0.0 2 5 0 0x0 0 0
- 0.32272 3 2 ack 40 ------- 1 3.0 0.0 2 5 0 0x0 0 0
r 0.41272 3 2 ack 40 ------- 1 3.0 0.0 1 4 0 0x0 0 0
+ 0.41272 2 0 ack 40 ------- 1 3.0 0.0 1 4 0 0x0 0 0
- 0.41272 2 0 ack 40 ------- 1 3.0 0.0 1 4 0 0x0 0 0
r 0.41276 2 0 ack 40 ------- 1 3.0 0.0 1 4 0 0x0 0 0
+ 0.41276 0 2 tcp 1040 ------- 1 0.0 3.0 3 6 0 0x0 0 0
- 0.41276 0 2 tcp 1040 ------- 1 0.0 3.0 3 6 0 0x0 0 0
+ 0.41276 0 2 tcp 1040 ------- 1 0.0 3.0 4 7 0 0x0 0 0
r 0.4138 0 2 tcp 1040 ------- 1 0.0 3.0 3 6 0 0x0 0 0
d 0.4138 2 3 tcp 1040 ------- 1 0.0 3.0 3 6 0 0x0 0 0
- 0.4138 0 2 tcp 1040 ------- 1 0.0 3.0 4 7 0 0x0 0 0
r 0.41484 0 2 tcp 1040 ------- 1 0.0 3.0 4 7 0 0x0 0 0
+ 0.41484 2 3 tcp 1040 ------- 1 0.0 3.0 4 7 0 0x0 0 0
- 0.41484 2 3 tcp 1040 ------- 1 0.0 3.0 4 7 0 0x0 0 0
r 0.42312 3 2 ack 40 ------- 1 3.0 0.0 2 5 0 0x0 0 0
+ 0.42312 2 0 ack 40 ------- 1 3.0 0.0 2 5 0 0x0 0 0
- 0.42312 2 0 ack 40 ------- 1 3.0 0.0 2 5 0 0x0 0 0
r 0.42316 2 0 ack 40 ------- 1 3.0 0.0 2 5 0 0x0 0 0
+ 0.42316 0 2 tcp 1040 ------- 1 0.0 3.0 5 8 0 0x0 0 0
- 0.42316 0 2 tcp 1040 ------- 1 0.0 3.0 5 8 0 0x0 0 0
+ 0.42316 0 2 tcp 1040 ------- 1 0.0 3.0 6 9 0 0x0 0 0
r 0.4242 0 2 tcp 1040 ------- 1 0.0 3.0 5 8 0 0x0 0 0
+ 0.4242 2 3 tcp 1040 ------- 1 0.0 3.0 5 8 0 0x0 0 0
- 0.4242 0 2 tcp 1040 ------- 1 0.0 3.0 6 9 0 0x0 0 0
r 0.42524 0 2 tcp 1040 ------- 1 0.0 3.0 6 9 0 0x0 0 0
+ 0.42524 2 3 tcp 1040 ------- 1 0.0 3.0 6 9 0 0x0 0 0
- 0.42524 2 3 tcp 1040 ------- 1 0.0 3.0 5 8 0 0x0 0 0
- 0.43564 2 3 tcp 1040 ------- 1 0.0 3.0 6 9 0 0x0 0 0
r 0.52524 2 3 tcp 1040 ------- 1 0.0 3.0 4 7 0 0x0 0 0
+ 0.52524 3 2 ack 48 ------- 1 3.0 0.0 2 10 0 0x0 0 1
- 0.52524 3 2 ack 48 ------- 1 3.0 0.0 2 10 0 0x0 0 1
r 0.53564 2 3 tcp 1040 ------- 1 0.0 3.0 5 8 0 0x0 0 0
+ 0.53564 3 2 ack 48 ------- 1 3.0 0.0 2 11 0 0x0 0 1
- 0.53564 3 2 ack 48 ------- 1 3.0 0.0 2 11 0 0x0 0 1
r 0.54604 2 3 tcp 1040 ------- 1 0.0 3.0 6 9 0 0x0 0 0
+ 0.54604 3 2 ack 48 ------- 1 3.0 0.0 2 12 0 0x0 0 1
- 0.54604 3 2 ack 48 ------- 1 3.0 0.0 2 12 0 0x0 0 1
r 0.62572 3 2 ack 48 ------- 1 3.0 0.0 2 10 0 0x0 0 1
+ 0.62572 2 0 ack 48 ------- 1 3.0 0.0 2 10 0 0x0 0 1
- 0.62572 2 0 ack 48 ------- 1 3.0 0.0 2 10 0 0x0 0 1
r 0.625768 2 0 ack 48 ------- 1 3.0 0.0 2 10 0 0x0 0 1
+ 0.625768 0 2 tcp 1040 ------- 1 0.0 3.0 7 13 0 0x0 0 0
- 0.625768 0 2 tcp 1040 ------- 1 0.0 3.0 7 13 0 0x0 0 0
r 0.626808 0 2 tcp 1040 ------- 1 0.0 3.0 7 13 0 0x0 0 0
+ 0.626808 2 3 tcp 1040 ------- 1 0.0 3.0 7 13 0 0x0 0 0
- 0.626808 2 3 tcp 1040 ------- 1 0.0 3.0 7 13 0 0x0 0 0
r 0.63612 3 2 ack 48 ------- 1 3.0 0.0 2 11 0 0x0 0 1
+ 0.63612 2 0 ack 48 ------- 1 3.0 0.0 2 11 0 0x0 0 1
- 0.63612 2 0 ack 48 ------- 1 3.0 0.0 2 11 0 0x0 0 1
r 0.636168 2 0 ack 48 ------- 1 3.0 0.0 2 11 0 0x0 0 1
+ 0.636168 0 2 tcp 1040 ------- 1 0.0 3.0 8 14 0 0x0 0 0
- 0.636168 0 2 tcp 1040 ------- 1 0.0 3.0 8 14 0 0x0 0 0
r 0.637208 0 2 tcp 1040 ------- 1 0.0 3.0 8 14 0 0x0 0 0
+ 0.637208 2 3 tcp 1040 ------- 1 0.0 3.0 8 14 0 0x0 0 0
- 0.637208 2 3 tcp 1040 ------- 1 0.0 3.0 8 14 0 0x0 0 0
r 0.64652 3 2 ack 48 ------- 1 3.0 0.0 2 12 0 0x0 0 1
+ 0.64652 2 0 ack 48 ------- 1 3.0 0.0 2 12 0 0x0 0 1
- 0.64652 2 0 ack 48 ------- 1 3.0 0.0 2 12 0 0x0 0 1
r 0.646568 2 0 ack 48 ------- 1 3.0 0.0 2 12 0 0x0 0 1
+ 0.646568 0 2 tcp 1040 ---A--- 1 0.0 3.0 3 15 0 0x0 0 0
- 0.646568 0 2 tcp 1040 ---A--- 1 0.0 3.0 3 15 0 0x0 0 0
r 0.647608 0 2 tcp 1040 ---A--- 1 0.0 3.0 3 15 0 0x0 0 0
+ 0.647608 2 3 tcp 1040 ---A--- 1 0.0 3.0 3 15 0 0x0 0 0
- 0.647608 2 3 tcp 1040 ---A--- 1 0.0 3.0 3 15 0 0x0 0 0
r 0.737208 2 3 tcp 1040 ------- 1 0.0 3.0 7 13 0 0x0 0 0
+ 0.737208 3 2 ack 48 ------- 1 3.0 0.0 2 16 0 0x0 0 1
- 0.737208 3 2 ack 48 ------- 1 3.0 0.0 2 16 0 0x0 0 1
r 0.747608 2 3 tcp 1040 ------- 1 0.0 3.0 8 14 0 0x0 0 0
+ 0.747608 3 2 ack 48 ------- 1 3.0 0.0 2 17 0 0x0 0 1
- 0.747608 3 2 ack 48 ------- 1 3.0 0.0 2 17 0 0x0 0 1
r 0.758008 2 3 tcp 1040 ---A--- 1 0.0 3.0 3 15 0 0x0 0 0
+ 0.758008 3 2 ack 40 ------- 1 3.0 0.0 8 18 0 0x0 0 0
- 0.758008 3 2 ack 40 ------- 1 3.0 0.0 8 18 0 0x0 0 0
r 0.837688 3 2 ack 48 ------- 1 3.0 0.0 2 16 0 0x0 0 1
+ 0.837688 2 0 ack 48 ------- 1 3.0 0.0 2 16 0 0x0 0 1
- 0.837688 2 0 ack 48 ------- 1 3.0 0.0 2 16 0 0x0 0 1
r 0.837736 2 0 ack 48 ------- 1 3.0 0.0 2 16 0 0x0 0 1
r 0.848088 3 2 ack 48 ------- 1 3.0 0.0 2 17 0 0x0 0 1
+ 0.848088 2 0 ack 48 ------- 1 3.0 0.0 2 17 0 0x0 0 1
- 0.848088 2 0 ack 48 ------- 1 3.0 0.0 2 17 0 0x0 0 1
r 0.848136 2 0 ack 48 ------- 1 3.0 0.0 2 17 0 0x0 0 1
+ 0.848136 0 2 tcp 1040 ------- 1 0.0 3.0 9 19 0 0x0 0 0
- 0.848136 0 2 tcp 1040 ------- 1 0.0 3.0 9 19 0 0x0 0 0
r 0.849176 0 2 tcp 1040 ------- 1 0.0 3.0 9 19 0 0x0 0 0
+ 0.849176 2 3 tcp 1040 ------- 1 0.0 3.0 9 19 0 0x0 0 0
- 0.849176 2 3 tcp 1040 ------- 1 0.0 3.0 9 19 0 0x0 0 0
r 0.858408 3 2 ack 40 ------- 1 3.0 0.0 8 18 0 0x0 0 0
+ 0.858408 2 0 ack 40 ------- 1 3.0 0.0 8 18 0 0x0 0 0
- 0.858408 2 0 ack 40 ------- 1 3.0 0.0 8 18 0 0x0 0 0
r 0.858448 2 0 ack 40 ------- 1 3.0 0.0 8 18 0 0x0 0 0
+ 0.858448 0 2 tcp 1040 ------- 1 0.0 3.0 10 20 0 0x0 0 0
- 0.858448 0 2 tcp 1040 ------- 1 0.0 3.0 10 20 0 0x0 0 0
r 0.859488 0 2 tcp 1040 ------- 1 0.0 3.0 10 20 0 0x0 0 0
+ 0.859488 2 3 tcp 1040 ------- 1 0.0 3.0 10 20 0 0x0 0 0
- 0.859576 2 3 tcp 1040 ------- 1 0.0 3.0 10 20 0 0x0 0 0
r 0.959576 2 3 tcp 1040 ------- 1 0.0 3.0 9 19 0 0x0 0 0
+ 0.959576 3 2 ack 40 ------- 1 3.0 0.0 9 21 0 0x0 0 0
- 0.959576 3 2 ack 40 ------- 1 3.0 0.0 9 21 0 0x0 0 0
r 0.969976 2 3 tcp 1040 ------- 1 0.0 3.0 10 20 0 0x0 0 0
+ 0.969976 3 2 ack 40 ------- 1 3.0 0.0 10 22 0 0x0 0 0
- 0.969976 3 2 ack 40 ------- 1 3.0 0.0 10 22 0 0x0 0 0
r 1.059976 3 2 ack 40 ------- 1 3.0 0.0 9 21 0 0x0 0 0
+ 1.059976 2 0 ack 40 ------- 1 3.0 0.0 9 21 0 0x0 0 0
- 1.059976 2 0 ack 40 ------- 1 3.0 0.0 9 21 0 0x0 0 0
r 1.060016 2 0 ack 40 ------- 1 3.0 0.0 9 21 0 0x0 0 0
+ 1.060016 0 2 tcp 1040 ------- 1 0.0 3.0 11 23 0 0x0 0 0
- 1.060016 0 2 tcp 1040 ------- 1 0.0 3.0 11 23 0 0x0 0 0
r 1.061056 0 2 tcp 1040 ------- 1 0.0 3.0 11 23 0 0x0 0 0
+ 1.061056 2 3 tcp 1040 ------- 1 0.0 3.0 11 23 0 0x0 0 0
- 1.061056 2 3 tcp 1040 ------- 1 0.0 3.0 11 23 0 0x0 0 0
r 1.070376 3 2 ack 40 ------- 1 3.0 0.0 10 22 0 0x0 0 0
+ 1.070376 2 0 ack 40 ------- 1 3.0 0.0 10 22 0 0x0 0 0
- 1.070376 2 0 ack 40 ------- 1 3.0 0.0 10 22 0 0x0 0 0
r 1.070416 2 0 ack 40 ------- 1 3.0 0.0 10 22 0 0x0 0 0
+ 1.070416 0 2 tcp 1040 ------- 1 0.0 3.0 12 24 0 0x0 0 0
- 1.070416 0 2 tcp 1040 ------- 1 0.0 3.0 12 24 0 0x0 0 0
r 1.071456 0 2 tcp 1040 ------- 1 0.0 3.0 12 24 0 0x0 0 0
+ 1.071456 2 3 tcp 1040 ------- 1 0.0 3.0 12 24 0 0x0 0 0
- 1.071456 2 3 tcp 1040 ------- 1 0.0 3.0 12 24 0 0x0 0 0
r 1.171456 2 3 tcp 1040 ------- 1 0.0 3.0 11 23 0 0x0 0 0
+ 1.171456 3 2 ack 40 ------- 1 3.0 0.0 11 25 0 0x0 0 0
- 1.171456 3 2 ack 40 ------- 1 3.0 0.0 11 25 0 0x0 0 0
r 1.181856 2 3 tcp 1040 ------- 1 0.0 3.0 12 24 0 0x0 0 0
+ 1.181856 3 2 ack 40 ------- 1 3.0 0.0 12 26 0 0x0 0 0
- 1.181856 3 2 ack 40 ------- 1 3.0 0.0 12 26 0 0x0 0 0
r 1.271856 3 2 ack 40 ------- 1 3.0 0.0 11 25 0 0x0 0 0
+ 1.271856 2 0 ack 40 ------- 1 3.0 0.0 11 25 0 0x0 0 0
- 1.271856 2 0 ack 40 ------- 1 3.0 0.0 11 25 0 0x0 0 0
r 1.271896 2 0 ack 40 ------- 1 3.0 0.0 11 25 0 0x0 0 0
+ 1.271896 0 2 tcp 1040 ------- 1 0.0 3.0 13 27 0 0x0 0 0
- 1.271896 0 2 tcp 1040 ------- 1 0.0 3.0 13 27 0 0x0 0 0
+ 1.271896 0 2 tcp 1040 ------- 1 0.0 3.0 14 28 0 0x0 0 0
r 1.272936 0 2 tcp 1040 ------- 1 0.0 3.0 13 27 0 0x0 0 0
+ 1.272936 2 3 tcp 1040 ------- 1 0.0 3.0 13 27 0 0x0 0 0
- 1.272936 2 3 tcp 1040 ------- 1 0.0 3.0 13 27 0 0x0 0 0
- 1.272936 0 2 tcp 1040 ------- 1 0.0 3.0 14 28 0 0x0 0 0
r 1.273976 0 2 tcp 1040 ------- 1 0.0 3.0 14 28 0 0x0 0 0
+ 1.273976 2 3 tcp 1040 ------- 1 0.0 3.0 14 28 0 0x0 0 0
r 1.282256 3 2 ack 40 ------- 1 3.0 0.0 12 26 0 0x0 0 0
+ 1.282256 2 0 ack 40 ------- 1 3.0 0.0 12 26 0 0x0 0 0
- 1.282256 2 0 ack 40 ------- 1 3.0 0.0 12 26 0 0x0 0 0
r 1.282296 2 0 ack 40 ------- 1 3.0 0.0 12 26 0 0x0 0 0
+ 1.282296 0 2 tcp 1040 ------- 1 0.0 3.0 15 29 0 0x0 0 0
- 1.282296 0 2 tcp 1040 ------- 1 0.0 3.0 15 29 0 0x0 0 0
- 1.283336 2 3 tcp 1040 ------- 1 0.0 3.0 14 28 0 0x0 0 0
r 1.283336 0 2 tcp 1040 ------- 1 0.0 3.0 15 29 0 0x0 0 0
+ 1.283336 2 3 tcp 1040 ------- 1 0.0 3.0 15 29 0 0x0 0 0
- 1.293736 2 3 tcp 1040 ------- 1 0.0 3.0 15 29 0 0x0 0 0
r 1.383336 2 3 tcp 1040 ------- 1 0.0 3.0 13 27 0 0x0 0 0
+ 1.383336 3 2 ack 40 ------- 1 3.0 0.0 13 30 0 0x0 0 0
- 1.383336 3 2 ack 40 ------- 1 3.0 0.0 13 30 0 0x0 0 0
r 1.393736 2 3 tcp 1040 ------- 1 0.0 3.0 14 28 0 0x0 0 0
+ 1.393736 3 2 ack 40 ------- 1 3.0 0.0 14 31 0 0x0 0 0
- 1.393736 3 2 ack 40 ------- 1 3.0 0.0 14 31 0 0x0 0 0
r 1.404136 2 3 tcp 1040 ------- 1 0.0 3.0 15 29 0 0x0 0 0
+ 1.404136 3 2 ack 40 ------- 1 3.0 0.0 15 32 0 0x0 0 0
- 1.404136 3 2 ack 40 ------- 1 3.0 0.0 15 32 0 0x0 0 0
r 1.483736 3 2 ack 40 ------- 1 3.0 0.0 13 30 0 0x0 0 0
+ 1.483736 2 0 ack 40 ------- 1 3.0 0.0 13 30 0 0x0 0 0
- 1.483736 2 0 ack 40 ------- 1 3.0 0.0 13 30 0 0x0 0 0
r 1.483776 2 0 ack 40 ------- 1 3.0 0.0 13 30 0 0x0 0 0
+ 1.483776 0 2 tcp 1040 ------- 1 0.0 3.0 16 33 0 0x0 0 0
- 1.483776 0 2 tcp 1040 ------- 1 0.0 3.0 16 33 0 0x0 0 0
r 1.484816 0 2 tcp 1040 ------- 1 0.0 3.0 16 33 0 0x0 0 0
+ 1.484816 2 3 tcp 1040 ------- 1 0.0 3.0 16 33 0 0x0 0 0
- 1.484816 2 3 tcp 1040 ------- 1 0.0 3.0 16 33 0 0x0 0 0
r 1.494136 3 2 ack 40 ------- 1 3.0 0.0 14 31 0 0x0 0 0
+ 1.494136 2 0 ack 40 ------- 1 3.0 0.0 14 31 0 0x0 0 0
- 1.494136 2 0 ack 40 ------- 1 3.0 0.0 14 31 0 0x0 0 0
r 1.494176 2 0 ack 40 ------- 1 3.0 0.0 14 31 0 0x0 0 0
+ 1.494176 0 2 tcp 1040 ------- 1 0.0 3.0 17 34 0 0x0 0 0
- 1.494176 0 2 tcp 1040 ------- 1 0.0 3.0 17 34 0 0x0 0 0
+ 1.494176 0 2 tcp 1040 ------- 1 0.0 3.0 18 35 0 0x0 0 0
r 1.495216 0 2 tcp 1040 ------- 1 0.0 3.0 17 34 0 0x0 0 0
+ 1.495216 2 3 tcp 1040 ------- 1 0.0 3.0 17 34 0 0x0 0 0
- 1.495216 2 3 tcp 1040 ------- 1 0.0 3.0 17 34 0 0x0 0 0
- 1.495216 0 2 tcp 1040 ------- 1 0.0 3.0 18 35 0 0x0 0 0
r 1.496256 0 2 tcp 1040 ------- 1 0.0 3.0 18 35 0 0x0 0 0
+ 1.496256 2 3 tcp 1040 ------- 1 0.0 3.0 18 35 0 0x0 0 0
r 1.504536 3 2 ack 40 ------- 1 3.0 0.0 15 32 0 0x0 0 0
+ 1.504536 2 0 ack 40 ------- 1 3.0 0.0 15 32 0 0x0 0 0
- 1.504536 2 0 ack 40 ------- 1 3.0 0.0 15 32 0 0x0 0 0
r 1.504576 2 0 ack 40 ------- 1 3.0 0.0 15 32 0 0x0 0 0
+ 1.504576 0 2 tcp 1040 ------- 1 0.0 3.0 19 36 0 0x0 0 0
- 1.504576 0 2 tcp 1040 ------- 1 0.0 3.0 19 36 0 0x0 0 0
- 1.505616 2 3 tcp 1040 ------- 1 0.0 3.0 18 35 0 0x0 0 0
r 1.505616 0 2 tcp 1040 ------- 1 0.0 3.0 19 36 0 0x0 0 0
+ 1.505616 2 3 tcp 1040 ------- 1 0.0 3.0 19 36 0 0x0 0 0
- 1.516016 2 3 tcp 1040 ------- 1 0.0 3.0 19 36 0 0x0 0 0
r 1.595216 2 3 tcp 1040 ------- 1 0.0 3.0 16 33 0 0x0 0 0
+ 1.595216 3 2 ack 40 ------- 1 3.0 0.0 16 37 0 0x0 0 0
- 1.595216 3 2 ack 40 ------- 1 3.0 0.0 16 37 0 0x0 0 0
r 1.605616 2 3 tcp 1040 ------- 1 0.0 3.0 17 34 0 0x0 0 0
+ 1.605616 3 2 ack 40 ------- 1 3.0 0.0 17 38 0 0x0 0 0
- 1.605616 3 2 ack 40 ------- 1 3.0 0.0 17 38 0 0x0 0 0
r 1.616016 2 3 tcp 1040 ------- 1 0.0 3.0 18 35 0 0x0 0 0
+ 1.616016 3 2 ack 40 ------- 1 3.0 0.0 18 39 0 0x0 0 0
- 1.616016 3 2 ack 40 ------- 1 3.0 0.0 18 39 0 0x0 0 0
r 1.626416 2 3 tcp 1040 ------- 1 0.0 3.0 19 36 0 0x0 0 0
+ 1.626416 3 2 ack 40 ------- 1 3.0 0.0 19 40 0 0x0 0 0
- 1.626416 3 2 ack 40 ------- 1 3.0 0.0 19 40 0 0x0 0 0
r 1.695616 3 2 ack 40 ------- 1 3.0 0.0 16 37 0 0x0 0 0
+ 1.695616 2 0 ack 40 ------- 1 3.0 0.0 16 37 0 0x0 0 0
- 1.695616 2 0 ack 40 ------- 1 3.0 0.0 16 37 0 0x0 0 0
r 1.695656 2 0 ack 40 ------- 1 3.0 0.0 16 37 0 0x0 0 0
+ 1.695656 0 2 tcp 1040 ------- 1 0.0 3.0 20 41 0 0x0 0 0
- 1.695656 0 2 tcp 1040 ------- 1 0.0 3.0 20 41 0 0x0 0 0
r 1.696696 0 2 tcp 1040 ------- 1 0.0 3.0 20 41 0 0x0 0 0
+ 1.696696 2 3 tcp 1040 ------- 1 0.0 3.0 20 41 0 0x0 0 0
- 1.696696 2 3 tcp 1040 ------- 1 0.0 3.0 20 41 0 0x0 0 0
r 1.706016 3 2 ack 40 ------- 1 3.0 0.0 17 38 0 0x0 0 0
+ 1.706016 2 0 ack 40 ------- 1 3.0 0.0 17 38 0 0x0 0 0
- 1.706016 2 0 ack 40 ------- 1 3.0 0.0 17 38 0 0x0 0 0
r 1.706056 2 0 ack 40 ------- 1 3.0 0.0 17 38 0 0x0 0 0
+ 1.706056 0 2 tcp 1040 ------- 1 0.0 3.0 21 42 0 0x0 0 0
- 1.706056 0 2 tcp 1040 ------- 1 0.0 3.0 21 42 0 0x0 0 0
r 1.707096 0 2 tcp 1040 ------- 1 0.0 3.0 21 42 0 0x0 0 0
+ 1.707096 2 3 tcp 1040 ------- 1 0.0 3.0 21 42 0 0x0 0 0
- 1.707096 2 3 tcp 1040 ------- 1 0.0 3.0 21 42 0 0x0 0 0
r 1.716416 3 2 ack 40 ------- 1 3.0 0.0 18 39 0 0x0 0 0
+ 1.716416 2 0 ack 40 ------- 1 3.0 0.0 18 39 0 0x0 0 0
- 1.716416 2 0 ack 40 ------- 1 3.0 0.0 18 39 0 0x0 0 0
r 1.716456 2 0 ack 40 ------- 1 3.0 0.0 18 39 0 0x0 0 0
+ 1.716456 0 2 tcp 1040 ------- 1 0.0 3.0 22 43 0 0x0 0 0
- 1.716456 0 2 tcp 1040 ------- 1 0.0 3.0 22 43 0 0x0 0 0
r 1.717496 0 2 tcp 1040 ------- 1 0.0 3.0 22 43 0 0x0 0 0
+ 1.717496 2 3 tcp 1040 ------- 1 0.0 3.0 22 43 0 0x0 0 0
- 1.717496 2 3 tcp 1040 ------- 1 0.0 3.0 22 43 0 0x0 0 0
r 1.726816 3 2 ack 40 ------- 1 3.0 0.0 19 40 0 0x0 0 0
+ 1.726816 2 0 ack 40 ------- 1 3.0 0.0 19 40 0 0x0 0 0
- 1.726816 2 0 ack 40 ------- 1 3.0 0.0 19 40 0 0x0 0 0
r 1.726856 2 0 ack 40 ------- 1 3.0 0.0 19 40 0 0x0 0 0
+ 1.726856 0 2 tcp 1040 ------- 1 0.0 3.0 23 44 0 0x0 0 0
- 1.726856 0 2 tcp 1040 ------- 1 0.0 3.0 23 44 0 0x0 0 0
+ 1.726856 0 2 tcp 1040 ------- 1 0.0 3.0 24 45 0 0x0 0 0
r 1.727896 0 2 tcp 1040 ------- 1 0.0 3.0 23 44 0 0x0 0 0
+ 1.727896 2 3 tcp 1040 ------- 1 0.0 3.0 23 44 0 0x0 0 0
- 1.727896 2 3 tcp 1040 ------- 1 0.0 3.0 23 44 0 0x0 0 0
- 1.727896 0 2 tcp 1040 ------- 1 0.0 3.0 24 45 0 0x0 0 0
r 1.728936 0 2 tcp 1040 ------- 1 0.0 3.0 24 45 0 0x0 0 0
+ 1.728936 2 3 tcp 1040 ------- 1 0.0 3.0 24 45 0 0x0 0 0
- 1.738296 2 3 tcp 1040 ------- 1 0.0 3.0 24 45 0 0x0 0 0
r 1.807096 2 3 tcp 1040 ------- 1 0.0 3.0 20 41 0 0x0 0 0
+ 1.807096 3 2 ack 40 ------- 1 3.0 0.0 20 46 0 0x0 0 0
- 1.807096 3 2 ack 40 ------- 1 3.0 0.0 20 46 0 0x0 0 0
r 1.817496 2 3 tcp 1040 ------- 1 0.0 3.0 21 42 0 0x0 0 0
+ 1.817496 3 2 ack 40 ------- 1 3.0 0.0 21 47 0 0x0 0 0
- 1.817496 3 2 ack 40 ------- 1 3.0 0.0 21 47 0 0x0 0 0
r 1.827896 2 3 tcp 1040 ------- 1 0.0 3.0 22 43 0 0x0 0 0
+ 1.827896 3 2 ack 40 ------- 1 3.0 0.0 22 48 0 0x0 0 0
- 1.827896 3 2 ack 40 ------- 1 3.0 0.0 22 48 0 0x0 0 0
r 1.838296 2 3 tcp 1040 ------- 1 0.0 3.0 23 44 0 0x0 0 0
+ 1.838296 3 2 ack 40 ------- 1 3.0 0.0 23 49 0 0x0 0 0
- 1.838296 3 2 ack 40 ------- 1 3.0 0.0 23 49 0 0x0 0 0
r 1.848696 2 3 tcp 1040 ------- 1 0.0 3.0 24 45 0 0x0 0 0
+ 1.848696 3 2 ack 40 ------- 1 3.0 0.0 24 50 0 0x0 0 0
- 1.848696 3 2 ack 40 ------- 1 3.0 0.0 24 50 0 0x0 0 0
r 1.907496 3 2 ack 40 ------- 1 3.0 0.0 20 46 0 0x0 0 0
+ 1.907496 2 0 ack 40 ------- 1 3.0 0.0 20 46 0 0x0 0 0
- 1.907496 2 0 ack 40 ------- 1 3.0 0.0 20 46 0 0x0 0 0
r 1.907536 2 0 ack 40 ------- 1 3.0 0.0 20 46 0 0x0 0 0
+ 1.907536 0 2 tcp 1040 ------- 1 0.0 3.0 25 51 0 0x0 0 0
- 1.907536 0 2 tcp 1040 ------- 1 0.0 3.0 25 51 0 0x0 0 0
r 1.908576 0 2 tcp 1040 ------- 1 0.0 3.0 25 51 0 0x0 0 0
+ 1.908576 2 3 tcp 1040 ------- 1 0.0 3.0 25 51 0 0x0 0 0
- 1.908576 2 3 tcp 1040 ------- 1 0.0 3.0 25 51 0 0x0 0 0
r 1.917896 3 2 ack 40 ------- 1 3.0 0.0 21 47 0 0x0 0 0
+ 1.917896 2 0 ack 40 ------- 1 3.0 0.0 21 47 0 0x0 0 0
- 1.917896 2 0 ack 40 ------- 1 3.0 0.0 21 47 0 0x0 0 0
r 1.917936 2 0 ack 40 ------- 1 3.0 0.0 21 47 0 0x0 0 0
+ 1.917936 0 2 tcp 1040 ------- 1 0.0 3.0 26 52 0 0x0 0 0
- 1.917936 0 2 tcp 1040 ------- 1 0.0 3.0 26 52 0 0x0 0 0
r 1.918976 0 2 tcp 1040 ------- 1 0.0 3.0 26 52 0 0x0 0 0
+ 1.918976 2 3 tcp 1040 ------- 1 0.0 3.0 26 52 0 0x0 0 0
- 1.918976 2 3 tcp 1040 ------- 1 0.0 3.0 26 52 0 0x0 0 0
r 1.928296 3 2 ack 40 ------- 1 3.0 0.0 22 48 0 0x0 0 0
+ 1.928296 2 0 ack 40 ------- 1 3.0 0.0 22 48 0 0x0 0 0
- 1.928296 2 0 ack 40 ------- 1 3.0 0.0 22 48 0 0x0 0 0
r 1.928336 2 0 ack 40 ------- 1 3.0 0.0 22 48 0 0x0 0 0
+ 1.928336 0 2 tcp 1040 ------- 1 0.0 3.0 27 53 0 0x0 0 0
- 1.928336 0 2 tcp 1040 ------- 1 0.0 3.0 27 53 0 0x0 0 0
r 1.929376 0 2 tcp 1040 ------- 1 0.0 3.0 27 53 0 0x0 0 0
+ 1.929376 2 3 tcp 1040 ------- 1 0.0 3.0 27 53 0 0x0 0 0
- 1.929376 2 3 tcp 1040 ------- 1 0.0 3.0 27 53 0 0x0 0 0
r 1.938696 3 2 ack 40 ------- 1 3.0 0.0 23 49 0 0x0 0 0
+ 1.938696 2 0 ack 40 ------- 1 3.0 0.0 23 49 0 0x0 0 0
- 1.938696 2 0 ack 40 ------- 1 3.0 0.0 23 49 0 0x0 0 0
r 1.938736 2 0 ack 40 ------- 1 3.0 0.0 23 49 0 0x0 0 0
+ 1.938736 0 2 tcp 1040 ------- 1 0.0 3.0 28 54 0 0x0 0 0
- 1.938736 0 2 tcp 1040 ------- 1 0.0 3.0 28 54 0 0x0 0 0
r 1.939776 0 2 tcp 1040 ------- 1 0.0 3.0 28 54 0 0x0 0 0
+ 1.939776 2 3 tcp 1040 ------- 1 0.0 3.0 28 54 0 0x0 0 0
- 1.939776 2 3 tcp 1040 ------- 1 0.0 3.0 28 54 0 0x0 0 0
r 1.949096 3 2 ack 40 ------- 1 3.0 0.0 24 50 0 0x0 0 0
+ 1.949096 2 0 ack 40 ------- 1 3.0 0.0 24 50 0 0x0 0 0
- 1.949096 2 0 ack 40 ------- 1 3.0 0.0 24 50 0 0x0 0 0
r 1.949136 2 0 ack 40 ------- 1 3.0 0.0 24 50 0 0x0 0 0
+ 1.949136 0 2 tcp 1040 ------- 1 0.0 3.0 29 55 0 0x0 0 0
- 1.949136 0 2 tcp 1040 ------- 1 0.0 3.0 29 55 0 0x0 0 0
+ 1.949136 0 2 tcp 1040 ------- 1 0.0 3.0 30 56 0 0x0 0 0
r 1.950176 0 2 tcp 1040 ------- 1 0.0 3.0 29 55 0 0x0 0 0
+ 1.950176 2 3 tcp 1040 ------- 1 0.0 3.0 29 55 0 0x0 0 0
- 1.950176 2 3 tcp 1040 ------- 1 0.0 3.0 29 55 0 0x0 0 0
- 1.950176 0 2 tcp 1040 ------- 1 0.0 3.0 30 56 0 0x0 0 0
r 1.951216 0 2 tcp 1040 ------- 1 0.0 3.0 30 56 0 0x0 0 0
+ 1.951216 2 3 tcp 1040 ------- 1 0.0 3.0 30 56 0 0x0 0 0
- 1.960576 2 3 tcp 1040 ------- 1 0.0 3.0 30 56 0 0x0 0 0
