+ 0.30084 2 0 ack 40 ------- 0 3.0 0.0 0 1 0 0x0 0 0
- 0.30084 2 0 ack 40 ------- 0 3.0 0.0 0 1 0 0x0 0 0
r 0.30088 2 0 ack 40 ------- 0 3.0 0.0 0 1 0 0x0 0 0
+ 0.52228 2 0 ack 40 ------- 0 3.0 0.0 2 4 0 0x0 0 0
- 0.52228 2 0 ack 40 ------- 0 3.0 0.0 2 4 0 0x0 0 0
r 0.52232 2 0 ack 40 ------- 0 3.0 0.0 2 4 0 0x0 0 0
+ 0.74372 2 0 ack 40 ------- 0 3.0 0.0 4 8 0 0x0 0 0
- 0.74372 2 0 ack 40 ------- 0 3.0 0.0 4 8 0 0x0 0 0
r 0.74376 2 0 ack 40 ------- 0 3.0 0.0 4 8 0 0x0 0 0
+ 0.85372 2 0 ack 40 ------- 0 3.0 0.0 5 11 0 0x0 0 0
- 0.85372 2 0 ack 40 ------- 0 3.0 0.0 5 11 0 0x0 0 0
r 0.85376 2 0 ack 40 ------- 0 3.0 0.0 5 11 0 0x0 0 0
+ 0.96516 2 0 ack 40 ------- 0 3.0 0.0 7 12 0 0x0 0 0
- 0.96516 2 0 ack 40 ------- 0 3.0 0.0 7 12 0 0x0 0 0
r 0.9652 2 0 ack 40 ------- 0 3.0 0.0 7 12 0 0x0 0 0
