V -t * -v 1.0a5 -a 0
A -t * -n 1 -p 0 -o 0x7fffffff -c 30 -a 1
A -t * -h 1 -m 1073741823 -s 0
c -t * -i 0 -n blue
c -t * -i 1 -n red
c -t * -i 2 -n yellow
n -t * -a 0 -s 0 -S UP -v circle -c black -i black
n -t * -a 1 -s 1 -S UP -v circle -c black -i black
n -t * -a 2 -s 2 -S UP -v circle -c black -i black
n -t * -a 3 -s 3 -S UP -v circle -c black -i black
l -t * -s 0 -d 1 -S UP -r 1500000 -D 0.01 -c black
l -t * -s 1 -d 2 -S UP -r 1500000 -D 0.01 -c black
l -t * -s 1 -d 3 -S UP -r 1500000 -D 0.01 -c black
+ -t 1 -s 3 -d 1 -p cbr -e 210 -c 0 -i 0 -a 0 -x {3.0 0.1 0 ------- null}
- -t 1 -s 3 -d 1 -p cbr -e 210 -c 0 -i 0 -a 0 -x {3.0 0.1 0 ------- null}
h -t 1 -s 3 -d 1 -p cbr -e 210 -c 0 -i 0 -a 0 -x {3.0 0.1 -1 ------- null}
+ -t 1.00375 -s 3 -d 1 -p cbr -e 210 -c 0 -i 1 -a 0 -x {3.0 0.1 1 ------- null}
- -t 1.00375 -s 3 -d 1 -p cbr -e 210 -c 0 -i 1 -a 0 -x {3.0 0.1 1 ------- null}
h -t 1.00375 -s 3 -d 1 -p cbr -e 210 -c 0 -i 1 -a 0 -x {3.0 0.1 -1 ------- null}
+ -t 1.0075 -s 3 -d 1 -p cbr -e 210 -c 0 -i 2 -a 0 -x {3.0 0.1 2 ------- null}
- -t 1.0075 -s 3 -d 1 -p cbr -e 210 -c 0 -i 2 -a 0 -x {3.0 0.1 2 ------- null}
h -t 1.0075 -s 3 -d 1 -p cbr -e 210 -c 0 -i 2 -a 0 -x {3.0 0.1 -1 ------- null}
r -t 1.01112 -s 3 -d 1 -p cbr -e 210 -c 0 -i 0 -a 0 -x {3.0 0.1 0 ------- null}
+ -t 1.01112 -s 1 -d 0 -p cbr -e 210 -c 0 -i 0 -a 0 -x {3.0 0.1 0 ------- null}
- -t 1.01112 -s 1 -d 0 -p cbr -e 210 -c 0 -i 0 -a 0 -x {3.0 0.1 0 ------- null}
h -t 1.01112 -s 1 -d 0 -p cbr -e 210 -c 0 -i 0 -a 0 -x {3.0 0.1 -1 ------- null}
+ -t 1.01125 -s 3 -d 1 -p cbr -e 210 -c 0 -i 3 -a 0 -x {3.0 0.1 3 ------- null}
- -t 1.01125 -s 3 -d 1 -p cbr -e 210 -c 0 -i 3 -a 0 -x {3.0 0.1 3 ------- null}
h -t 1.01125 -s 3 -d 1 -p cbr -e 210 -c 0 -i 3 -a 0 -x {3.0 0.1 -1 ------- null}
r -t 1.01487 -s 3 -d 1 -p cbr -e 210 -c 0 -i 1 -a 0 -x {3.0 0.1 1 ------- null}
+ -t 1.01487 -s 1 -d 0 -p cbr -e 210 -c 0 -i 1 -a 0 -x {3.0 0.1 1 ------- null}
- -t 1.01487 -s 1 -d 0 -p cbr -e 210 -c 0 -i 1 -a 0 -x {3.0 0.1 1 ------- null}
h -t 1.01487 -s 1 -d 0 -p cbr -e 210 -c 0 -i 1 -a 0 -x {3.0 0.1 -1 ------- null}
+ -t 1.015 -s 3 -d 1 -p cbr -e 210 -c 0 -i 4 -a 0 -x {3.0 0.1 4 ------- null}
- -t 1.015 -s 3 -d 1 -p cbr -e 210 -c 0 -i 4 -a 0 -x {3.0 0.1 4 ------- null}
h -t 1.015 -s 3 -d 1 -p cbr -e 210 -c 0 -i 4 -a 0 -x {3.0 0.1 -1 ------- null}
r -t 1.01862 -s 3 -d 1 -p cbr -e 210 -c 0 -i 2 -a 0 -x {3.0 0.1 2 ------- null}
+ -t 1.01862 -s 1 -d 0 -p cbr -e 210 -c 0 -i 2 -a 0 -x {3.0 0.1 2 ------- null}
- -t 1.01862 -s 1 -d 0 -p cbr -e 210 -c 0 -i 2 -a 0 -x {3.0 0.1 2 ------- null}
h -t 1.01862 -s 1 -d 0 -p cbr -e 210 -c 0 -i 2 -a 0 -x {3.0 0.1 -1 ------- null}
+ -t 1.01875 -s 3 -d 1 -p cbr -e 210 -c 0 -i 5 -a 0 -x {3.0 0.1 5 ------- null}
- -t 1.01875 -s 3 -d 1 -p cbr -e 210 -c 0 -i 5 -a 0 -x {3.0 0.1 5 ------- null}
h -t 1.01875 -s 3 -d 1 -p cbr -e 210 -c 0 -i 5 -a 0 -x {3.0 0.1 -1 ------- null}
r -t 1.02224 -s 1 -d 0 -p cbr -e 210 -c 0 -i 0 -a 0 -x {3.0 0.1 0 ------- null}
r -t 1.02237 -s 3 -d 1 -p cbr -e 210 -c 0 -i 3 -a 0 -x {3.0 0.1 3 ------- null}
+ -t 1.02237 -s 1 -d 0 -p cbr -e 210 -c 0 -i 3 -a 0 -x {3.0 0.1 3 ------- null}
- -t 1.02237 -s 1 -d 0 -p cbr -e 210 -c 0 -i 3 -a 0 -x {3.0 0.1 3 ------- null}
h -t 1.02237 -s 1 -d 0 -p cbr -e 210 -c 0 -i 3 -a 0 -x {3.0 0.1 -1 ------- null}
+ -t 1.0225 -s 3 -d 1 -p cbr -e 210 -c 0 -i 6 -a 0 -x {3.0 0.1 6 ------- null}
- -t 1.0225 -s 3 -d 1 -p cbr -e 210 -c 0 -i 6 -a 0 -x {3.0 0.1 6 ------- null}
h -t 1.0225 -s 3 -d 1 -p cbr -e 210 -c 0 -i 6 -a 0 -x {3.0 0.1 -1 ------- null}
r -t 1.02599 -s 1 -d 0 -p cbr -e 210 -c 0 -i 1 -a 0 -x {3.0 0.1 1 ------- null}
r -t 1.02612 -s 3 -d 1 -p cbr -e 210 -c 0 -i 4 -a 0 -x {3.0 0.1 4 ------- null}
+ -t 1.02612 -s 1 -d 0 -p cbr -e 210 -c 0 -i 4 -a 0 -x {3.0 0.1 4 ------- null}
- -t 1.02612 -s 1 -d 0 -p cbr -e 210 -c 0 -i 4 -a 0 -x {3.0 0.1 4 ------- null}
h -t 1.02612 -s 1 -d 0 -p cbr -e 210 -c 0 -i 4 -a 0 -x {3.0 0.1 -1 ------- null}
+ -t 1.02625 -s 3 -d 1 -p cbr -e 210 -c 0 -i 7 -a 0 -x {3.0 0.1 7 ------- null}
- -t 1.02625 -s 3 -d 1 -p cbr -e 210 -c 0 -i 7 -a 0 -x {3.0 0.1 7 ------- null}
h -t 1.02625 -s 3 -d 1 -p cbr -e 210 -c 0 -i 7 -a 0 -x {3.0 0.1 -1 ------- null}
r -t 1.02974 -s 1 -d 0 -p cbr -e 210 -c 0 -i 2 -a 0 -x {3.0 0.1 2 ------- null}
r -t 1.02987 -s 3 -d 1 -p cbr -e 210 -c 0 -i 5 -a 0 -x {3.0 0.1 5 ------- null}
+ -t 1.02987 -s 1 -d 0 -p cbr -e 210 -c 0 -i 5 -a 0 -x {3.0 0.1 5 ------- null}
- -t 1.02987 -s 1 -d 0 -p cbr -e 210 -c 0 -i 5 -a 0 -x {3.0 0.1 5 ------- null}
h -t 1.02987 -s 1 -d 0 -p cbr -e 210 -c 0 -i 5 -a 0 -x {3.0 0.1 -1 ------- null}
+ -t 1.03 -s 3 -d 1 -p cbr -e 210 -c 0 -i 8 -a 0 -x {3.0 0.1 8 ------- null}
- -t 1.03 -s 3 -d 1 -p cbr -e 210 -c 0 -i 8 -a 0 -x {3.0 0.1 8 ------- null}
h -t 1.03 -s 3 -d 1 -p cbr -e 210 -c 0 -i 8 -a 0 -x {3.0 0.1 -1 ------- null}
r -t 1.03349 -s 1 -d 0 -p cbr -e 210 -c 0 -i 3 -a 0 -x {3.0 0.1 3 ------- null}
r -t 1.03362 -s 3 -d 1 -p cbr -e 210 -c 0 -i 6 -a 0 -x {3.0 0.1 6 ------- null}
+ -t 1.03362 -s 1 -d 0 -p cbr -e 210 -c 0 -i 6 -a 0 -x {3.0 0.1 6 ------- null}
- -t 1.03362 -s 1 -d 0 -p cbr -e 210 -c 0 -i 6 -a 0 -x {3.0 0.1 6 ------- null}
h -t 1.03362 -s 1 -d 0 -p cbr -e 210 -c 0 -i 6 -a 0 -x {3.0 0.1 -1 ------- null}
+ -t 1.03375 -s 3 -d 1 -p cbr -e 210 -c 0 -i 9 -a 0 -x {3.0 0.1 9 ------- null}
- -t 1.03375 -s 3 -d 1 -p cbr -e 210 -c 0 -i 9 -a 0 -x {3.0 0.1 9 ------- null}
h -t 1.03375 -s 3 -d 1 -p cbr -e 210 -c 0 -i 9 -a 0 -x {3.0 0.1 -1 ------- null}
r -t 1.03724 -s 1 -d 0 -p cbr -e 210 -c 0 -i 4 -a 0 -x {3.0 0.1 4 ------- null}
r -t 1.03737 -s 3 -d 1 -p cbr -e 210 -c 0 -i 7 -a 0 -x {3.0 0.1 7 ------- null}
+ -t 1.03737 -s 1 -d 0 -p cbr -e 210 -c 0 -i 7 -a 0 -x {3.0 0.1 7 ------- null}
- -t 1.03737 -s 1 -d 0 -p cbr -e 210 -c 0 -i 7 -a 0 -x {3.0 0.1 7 ------- null}
h -t 1.03737 -s 1 -d 0 -p cbr -e 210 -c 0 -i 7 -a 0 -x {3.0 0.1 -1 ------- null}
+ -t 1.0375 -s 3 -d 1 -p cbr -e 210 -c 0 -i 10 -a 0 -x {3.0 0.1 10 ------- null}
- -t 1.0375 -s 3 -d 1 -p cbr -e 210 -c 0 -i 10 -a 0 -x {3.0 0.1 10 ------- null}
h -t 1.0375 -s 3 -d 1 -p cbr -e 210 -c 0 -i 10 -a 0 -x {3.0 0.1 -1 ------- null}
r -t 1.04099 -s 1 -d 0 -p cbr -e 210 -c 0 -i 5 -a 0 -x {3.0 0.1 5 ------- null}
r -t 1.04112 -s 3 -d 1 -p cbr -e 210 -c 0 -i 8 -a 0 -x {3.0 0.1 8 ------- null}
+ -t 1.04112 -s 1 -d 0 -p cbr -e 210 -c 0 -i 8 -a 0 -x {3.0 0.1 8 ------- null}
- -t 1.04112 -s 1 -d 0 -p cbr -e 210 -c 0 -i 8 -a 0 -x {3.0 0.1 8 ------- null}
h -t 1.04112 -s 1 -d 0 -p cbr -e 210 -c 0 -i 8 -a 0 -x {3.0 0.1 -1 ------- null}
+ -t 1.04125 -s 3 -d 1 -p cbr -e 210 -c 0 -i 11 -a 0 -x {3.0 0.1 11 ------- null}
- -t 1.04125 -s 3 -d 1 -p cbr -e 210 -c 0 -i 11 -a 0 -x {3.0 0.1 11 ------- null}
h -t 1.04125 -s 3 -d 1 -p cbr -e 210 -c 0 -i 11 -a 0 -x {3.0 0.1 -1 ------- null}
r -t 1.04474 -s 1 -d 0 -p cbr -e 210 -c 0 -i 6 -a 0 -x {3.0 0.1 6 ------- null}
r -t 1.04487 -s 3 -d 1 -p cbr -e 210 -c 0 -i 9 -a 0 -x {3.0 0.1 9 ------- null}
+ -t 1.04487 -s 1 -d 0 -p cbr -e 210 -c 0 -i 9 -a 0 -x {3.0 0.1 9 ------- null}
- -t 1.04487 -s 1 -d 0 -p cbr -e 210 -c 0 -i 9 -a 0 -x {3.0 0.1 9 ------- null}
h -t 1.04487 -s 1 -d 0 -p cbr -e 210 -c 0 -i 9 -a 0 -x {3.0 0.1 -1 ------- null}
+ -t 1.045 -s 3 -d 1 -p cbr -e 210 -c 0 -i 12 -a 0 -x {3.0 0.1 12 ------- null}
- -t 1.045 -s 3 -d 1 -p cbr -e 210 -c 0 -i 12 -a 0 -x {3.0 0.1 12 ------- null}
h -t 1.045 -s 3 -d 1 -p cbr -e 210 -c 0 -i 12 -a 0 -x {3.0 0.1 -1 ------- null}
r -t 1.04849 -s 1 -d 0 -p cbr -e 210 -c 0 -i 7 -a 0 -x {3.0 0.1 7 ------- null}
r -t 1.04862 -s 3 -d 1 -p cbr -e 210 -c 0 -i 10 -a 0 -x {3.0 0.1 10 ------- null}
+ -t 1.04862 -s 1 -d 0 -p cbr -e 210 -c 0 -i 10 -a 0 -x {3.0 0.1 10 ------- null}
- -t 1.04862 -s 1 -d 0 -p cbr -e 210 -c 0 -i 10 -a 0 -x {3.0 0.1 10 ------- null}
h -t 1.04862 -s 1 -d 0 -p cbr -e 210 -c 0 -i 10 -a 0 -x {3.0 0.1 -1 ------- null}
+ -t 1.04875 -s 3 -d 1 -p cbr -e 210 -c 0 -i 13 -a 0 -x {3.0 0.1 13 ------- null}
- -t 1.04875 -s 3 -d 1 -p cbr -e 210 -c 0 -i 13 -a 0 -x {3.0 0.1 13 ------- null}
h -t 1.04875 -s 3 -d 1 -p cbr -e 210 -c 0 -i 13 -a 0 -x {3.0 0.1 -1 ------- null}
r -t 1.05224 -s 1 -d 0 -p cbr -e 210 -c 0 -i 8 -a 0 -x {3.0 0.1 8 ------- null}
r -t 1.05237 -s 3 -d 1 -p cbr -e 210 -c 0 -i 11 -a 0 -x {3.0 0.1 11 ------- null}
+ -t 1.05237 -s 1 -d 0 -p cbr -e 210 -c 0 -i 11 -a 0 -x {3.0 0.1 11 ------- null}
- -t 1.05237 -s 1 -d 0 -p cbr -e 210 -c 0 -i 11 -a 0 -x {3.0 0.1 11 ------- null}
h -t 1.05237 -s 1 -d 0 -p cbr -e 210 -c 0 -i 11 -a 0 -x {3.0 0.1 -1 ------- null}
+ -t 1.0525 -s 3 -d 1 -p cbr -e 210 -c 0 -i 14 -a 0 -x {3.0 0.1 14 ------- null}
- -t 1.0525 -s 3 -d 1 -p cbr -e 210 -c 0 -i 14 -a 0 -x {3.0 0.1 14 ------- null}
h -t 1.0525 -s 3 -d 1 -p cbr -e 210 -c 0 -i 14 -a 0 -x {3.0 0.1 -1 ------- null}
r -t 1.05599 -s 1 -d 0 -p cbr -e 210 -c 0 -i 9 -a 0 -x {3.0 0.1 9 ------- null}
r -t 1.05612 -s 3 -d 1 -p cbr -e 210 -c 0 -i 12 -a 0 -x {3.0 0.1 12 ------- null}
+ -t 1.05612 -s 1 -d 0 -p cbr -e 210 -c 0 -i 12 -a 0 -x {3.0 0.1 12 ------- null}
- -t 1.05612 -s 1 -d 0 -p cbr -e 210 -c 0 -i 12 -a 0 -x {3.0 0.1 12 ------- null}
h -t 1.05612 -s 1 -d 0 -p cbr -e 210 -c 0 -i 12 -a 0 -x {3.0 0.1 -1 ------- null}
+ -t 1.05625 -s 3 -d 1 -p cbr -e 210 -c 0 -i 15 -a 0 -x {3.0 0.1 15 ------- null}
- -t 1.05625 -s 3 -d 1 -p cbr -e 210 -c 0 -i 15 -a 0 -x {3.0 0.1 15 ------- null}
h -t 1.05625 -s 3 -d 1 -p cbr -e 210 -c 0 -i 15 -a 0 -x {3.0 0.1 -1 ------- null}
r -t 1.05974 -s 1 -d 0 -p cbr -e 210 -c 0 -i 10 -a 0 -x {3.0 0.1 10 ------- null}
r -t 1.05987 -s 3 -d 1 -p cbr -e 210 -c 0 -i 13 -a 0 -x {3.0 0.1 13 ------- null}
+ -t 1.05987 -s 1 -d 0 -p cbr -e 210 -c 0 -i 13 -a 0 -x {3.0 0.1 13 ------- null}
- -t 1.05987 -s 1 -d 0 -p cbr -e 210 -c 0 -i 13 -a 0 -x {3.0 0.1 13 ------- null}
h -t 1.05987 -s 1 -d 0 -p cbr -e 210 -c 0 -i 13 -a 0 -x {3.0 0.1 -1 ------- null}
+ -t 1.06 -s 3 -d 1 -p cbr -e 210 -c 0 -i 16 -a 0 -x {3.0 0.1 16 ------- null}
- -t 1.06 -s 3 -d 1 -p cbr -e 210 -c 0 -i 16 -a 0 -x {3.0 0.1 16 ------- null}
h -t 1.06 -s 3 -d 1 -p cbr -e 210 -c 0 -i 16 -a 0 -x {3.0 0.1 -1 ------- null}
r -t 1.06349 -s 1 -d 0 -p cbr -e 210 -c 0 -i 11 -a 0 -x {3.0 0.1 11 ------- null}
r -t 1.06362 -s 3 -d 1 -p cbr -e 210 -c 0 -i 14 -a 0 -x {3.0 0.1 14 ------- null}
+ -t 1.06362 -s 1 -d 0 -p cbr -e 210 -c 0 -i 14 -a 0 -x {3.0 0.1 14 ------- null}
- -t 1.06362 -s 1 -d 0 -p cbr -e 210 -c 0 -i 14 -a 0 -x {3.0 0.1 14 ------- null}
h -t 1.06362 -s 1 -d 0 -p cbr -e 210 -c 0 -i 14 -a 0 -x {3.0 0.1 -1 ------- null}
+ -t 1.06375 -s 3 -d 1 -p cbr -e 210 -c 0 -i 17 -a 0 -x {3.0 0.1 17 ------- null}
- -t 1.06375 -s 3 -d 1 -p cbr -e 210 -c 0 -i 17 -a 0 -x {3.0 0.1 17 ------- null}
h -t 1.06375 -s 3 -d 1 -p cbr -e 210 -c 0 -i 17 -a 0 -x {3.0 0.1 -1 ------- null}
r -t 1.06724 -s 1 -d 0 -p cbr -e 210 -c 0 -i 12 -a 0 -x {3.0 0.1 12 ------- null}
r -t 1.06737 -s 3 -d 1 -p cbr -e 210 -c 0 -i 15 -a 0 -x {3.0 0.1 15 ------- null}
+ -t 1.06737 -s 1 -d 0 -p cbr -e 210 -c 0 -i 15 -a 0 -x {3.0 0.1 15 ------- null}
- -t 1.06737 -s 1 -d 0 -p cbr -e 210 -c 0 -i 15 -a 0 -x {3.0 0.1 15 ------- null}
h -t 1.06737 -s 1 -d 0 -p cbr -e 210 -c 0 -i 15 -a 0 -x {3.0 0.1 -1 ------- null}
+ -t 1.0675 -s 3 -d 1 -p cbr -e 210 -c 0 -i 18 -a 0 -x {3.0 0.1 18 ------- null}
- -t 1.0675 -s 3 -d 1 -p cbr -e 210 -c 0 -i 18 -a 0 -x {3.0 0.1 18 ------- null}
h -t 1.0675 -s 3 -d 1 -p cbr -e 210 -c 0 -i 18 -a 0 -x {3.0 0.1 -1 ------- null}
r -t 1.07099 -s 1 -d 0 -p cbr -e 210 -c 0 -i 13 -a 0 -x {3.0 0.1 13 ------- null}
r -t 1.07112 -s 3 -d 1 -p cbr -e 210 -c 0 -i 16 -a 0 -x {3.0 0.1 16 ------- null}
+ -t 1.07112 -s 1 -d 0 -p cbr -e 210 -c 0 -i 16 -a 0 -x {3.0 0.1 16 ------- null}
- -t 1.07112 -s 1 -d 0 -p cbr -e 210 -c 0 -i 16 -a 0 -x {3.0 0.1 16 ------- null}
h -t 1.07112 -s 1 -d 0 -p cbr -e 210 -c 0 -i 16 -a 0 -x {3.0 0.1 -1 ------- null}
+ -t 1.07125 -s 3 -d 1 -p cbr -e 210 -c 0 -i 19 -a 0 -x {3.0 0.1 19 ------- null}
- -t 1.07125 -s 3 -d 1 -p cbr -e 210 -c 0 -i 19 -a 0 -x {3.0 0.1 19 ------- null}
h -t 1.07125 -s 3 -d 1 -p cbr -e 210 -c 0 -i 19 -a 0 -x {3.0 0.1 -1 ------- null}
r -t 1.07474 -s 1 -d 0 -p cbr -e 210 -c 0 -i 14 -a 0 -x {3.0 0.1 14 ------- null}
r -t 1.07487 -s 3 -d 1 -p cbr -e 210 -c 0 -i 17 -a 0 -x {3.0 0.1 17 ------- null}
+ -t 1.07487 -s 1 -d 0 -p cbr -e 210 -c 0 -i 17 -a 0 -x {3.0 0.1 17 ------- null}
- -t 1.07487 -s 1 -d 0 -p cbr -e 210 -c 0 -i 17 -a 0 -x {3.0 0.1 17 ------- null}
h -t 1.07487 -s 1 -d 0 -p cbr -e 210 -c 0 -i 17 -a 0 -x {3.0 0.1 -1 ------- null}
+ -t 1.075 -s 3 -d 1 -p cbr -e 210 -c 0 -i 20 -a 0 -x {3.0 0.1 20 ------- null}
- -t 1.075 -s 3 -d 1 -p cbr -e 210 -c 0 -i 20 -a 0 -x {3.0 0.1 20 ------- null}
h -t 1.075 -s 3 -d 1 -p cbr -e 210 -c 0 -i 20 -a 0 -x {3.0 0.1 -1 ------- null}
r -t 1.07849 -s 1 -d 0 -p cbr -e 210 -c 0 -i 15 -a 0 -x {3.0 0.1 15 ------- null}
r -t 1.07862 -s 3 -d 1 -p cbr -e 210 -c 0 -i 18 -a 0 -x {3.0 0.1 18 ------- null}
+ -t 1.07862 -s 1 -d 0 -p cbr -e 210 -c 0 -i 18 -a 0 -x {3.0 0.1 18 ------- null}
- -t 1.07862 -s 1 -d 0 -p cbr -e 210 -c 0 -i 18 -a 0 -x {3.0 0.1 18 ------- null}
h -t 1.07862 -s 1 -d 0 -p cbr -e 210 -c 0 -i 18 -a 0 -x {3.0 0.1 -1 ------- null}
+ -t 1.07875 -s 3 -d 1 -p cbr -e 210 -c 0 -i 21 -a 0 -x {3.0 0.1 21 ------- null}
- -t 1.07875 -s 3 -d 1 -p cbr -e 210 -c 0 -i 21 -a 0 -x {3.0 0.1 21 ------- null}
h -t 1.07875 -s 3 -d 1 -p cbr -e 210 -c 0 -i 21 -a 0 -x {3.0 0.1 -1 ------- null}
r -t 1.08224 -s 1 -d 0 -p cbr -e 210 -c 0 -i 16 -a 0 -x {3.0 0.1 16 ------- null}
r -t 1.08237 -s 3 -d 1 -p cbr -e 210 -c 0 -i 19 -a 0 -x {3.0 0.1 19 ------- null}
+ -t 1.08237 -s 1 -d 0 -p cbr -e 210 -c 0 -i 19 -a 0 -x {3.0 0.1 19 ------- null}
- -t 1.08237 -s 1 -d 0 -p cbr -e 210 -c 0 -i 19 -a 0 -x {3.0 0.1 19 ------- null}
h -t 1.08237 -s 1 -d 0 -p cbr -e 210 -c 0 -i 19 -a 0 -x {3.0 0.1 -1 ------- null}
+ -t 1.0825 -s 3 -d 1 -p cbr -e 210 -c 0 -i 22 -a 0 -x {3.0 0.1 22 ------- null}
- -t 1.0825 -s 3 -d 1 -p cbr -e 210 -c 0 -i 22 -a 0 -x {3.0 0.1 22 ------- null}
h -t 1.0825 -s 3 -d 1 -p cbr -e 210 -c 0 -i 22 -a 0 -x {3.0 0.1 -1 ------- null}
r -t 1.08599 -s 1 -d 0 -p cbr -e 210 -c 0 -i 17 -a 0 -x {3.0 0.1 17 ------- null}
r -t 1.08612 -s 3 -d 1 -p cbr -e 210 -c 0 -i 20 -a 0 -x {3.0 0.1 20 ------- null}
+ -t 1.08612 -s 1 -d 0 -p cbr -e 210 -c 0 -i 20 -a 0 -x {3.0 0.1 20 ------- null}
- -t 1.08612 -s 1 -d 0 -p cbr -e 210 -c 0 -i 20 -a 0 -x {3.0 0.1 20 ------- null}
h -t 1.08612 -s 1 -d 0 -p cbr -e 210 -c 0 -i 20 -a 0 -x {3.0 0.1 -1 ------- null}
+ -t 1.08625 -s 3 -d 1 -p cbr -e 210 -c 0 -i 23 -a 0 -x {3.0 0.1 23 ------- null}
- -t 1.08625 -s 3 -d 1 -p cbr -e 210 -c 0 -i 23 -a 0 -x {3.0 0.1 23 ------- null}
h -t 1.08625 -s 3 -d 1 -p cbr -e 210 -c 0 -i 23 -a 0 -x {3.0 0.1 -1 ------- null}
r -t 1.08974 -s 1 -d 0 -p cbr -e 210 -c 0 -i 18 -a 0 -x {3.0 0.1 18 ------- null}
r -t 1.08987 -s 3 -d 1 -p cbr -e 210 -c 0 -i 21 -a 0 -x {3.0 0.1 21 ------- null}
+ -t 1.08987 -s 1 -d 0 -p cbr -e 210 -c 0 -i 21 -a 0 -x {3.0 0.1 21 ------- null}
- -t 1.08987 -s 1 -d 0 -p cbr -e 210 -c 0 -i 21 -a 0 -x {3.0 0.1 21 ------- null}
h -t 1.08987 -s 1 -d 0 -p cbr -e 210 -c 0 -i 21 -a 0 -x {3.0 0.1 -1 ------- null}
+ -t 1.09 -s 3 -d 1 -p cbr -e 210 -c 0 -i 24 -a 0 -x {3.0 0.1 24 ------- null}
- -t 1.09 -s 3 -d 1 -p cbr -e 210 -c 0 -i 24 -a 0 -x {3.0 0.1 24 ------- null}
h -t 1.09 -s 3 -d 1 -p cbr -e 210 -c 0 -i 24 -a 0 -x {3.0 0.1 -1 ------- null}
r -t 1.09349 -s 1 -d 0 -p cbr -e 210 -c 0 -i 19 -a 0 -x {3.0 0.1 19 ------- null}
r -t 1.09362 -s 3 -d 1 -p cbr -e 210 -c 0 -i 22 -a 0 -x {3.0 0.1 22 ------- null}
+ -t 1.09362 -s 1 -d 0 -p cbr -e 210 -c 0 -i 22 -a 0 -x {3.0 0.1 22 ------- null}
- -t 1.09362 -s 1 -d 0 -p cbr -e 210 -c 0 -i 22 -a 0 -x {3.0 0.1 22 ------- null}
h -t 1.09362 -s 1 -d 0 -p cbr -e 210 -c 0 -i 22 -a 0 -x {3.0 0.1 -1 ------- null}
+ -t 1.09375 -s 3 -d 1 -p cbr -e 210 -c 0 -i 25 -a 0 -x {3.0 0.1 25 ------- null}
- -t 1.09375 -s 3 -d 1 -p cbr -e 210 -c 0 -i 25 -a 0 -x {3.0 0.1 25 ------- null}
h -t 1.09375 -s 3 -d 1 -p cbr -e 210 -c 0 -i 25 -a 0 -x {3.0 0.1 -1 ------- null}
r -t 1.09724 -s 1 -d 0 -p cbr -e 210 -c 0 -i 20 -a 0 -x {3.0 0.1 20 ------- null}
r -t 1.09737 -s 3 -d 1 -p cbr -e 210 -c 0 -i 23 -a 0 -x {3.0 0.1 23 ------- null}
+ -t 1.09737 -s 1 -d 0 -p cbr -e 210 -c 0 -i 23 -a 0 -x {3.0 0.1 23 ------- null}
- -t 1.09737 -s 1 -d 0 -p cbr -e 210 -c 0 -i 23 -a 0 -x {3.0 0.1 23 ------- null}
h -t 1.09737 -s 1 -d 0 -p cbr -e 210 -c 0 -i 23 -a 0 -x {3.0 0.1 -1 ------- null}
+ -t 1.0975 -s 3 -d 1 -p cbr -e 210 -c 0 -i 26 -a 0 -x {3.0 0.1 26 ------- null}
- -t 1.0975 -s 3 -d 1 -p cbr -e 210 -c 0 -i 26 -a 0 -x {3.0 0.1 26 ------- null}
h -t 1.0975 -s 3 -d 1 -p cbr -e 210 -c 0 -i 26 -a 0 -x {3.0 0.1 -1 ------- null}
+ -t 1.1 -s 0 -d 1 -p cbr -e 210 -c 1 -i 27 -a 1 -x {0.0 2.0 0 ------- null}
- -t 1.1 -s 0 -d 1 -p cbr -e 210 -c 1 -i 27 -a 1 -x {0.0 2.0 0 ------- null}
h -t 1.1 -s 0 -d 1 -p cbr -e 210 -c 1 -i 27 -a 1 -x {0.0 2.0 -1 ------- null}
r -t 1.10099 -s 1 -d 0 -p cbr -e 210 -c 0 -i 21 -a 0 -x {3.0 0.1 21 ------- null}
r -t 1.10112 -s 3 -d 1 -p cbr -e 210 -c 0 -i 24 -a 0 -x {3.0 0.1 24 ------- null}
+ -t 1.10112 -s 1 -d 0 -p cbr -e 210 -c 0 -i 24 -a 0 -x {3.0 0.1 24 ------- null}
- -t 1.10112 -s 1 -d 0 -p cbr -e 210 -c 0 -i 24 -a 0 -x {3.0 0.1 24 ------- null}
h -t 1.10112 -s 1 -d 0 -p cbr -e 210 -c 0 -i 24 -a 0 -x {3.0 0.1 -1 ------- null}
+ -t 1.10125 -s 3 -d 1 -p cbr -e 210 -c 0 -i 28 -a 0 -x {3.0 0.1 27 ------- null}
- -t 1.10125 -s 3 -d 1 -p cbr -e 210 -c 0 -i 28 -a 0 -x {3.0 0.1 27 ------- null}
h -t 1.10125 -s 3 -d 1 -p cbr -e 210 -c 0 -i 28 -a 0 -x {3.0 0.1 -1 ------- null}
+ -t 1.10375 -s 0 -d 1 -p cbr -e 210 -c 1 -i 29 -a 1 -x {0.0 2.0 1 ------- null}
- -t 1.10375 -s 0 -d 1 -p cbr -e 210 -c 1 -i 29 -a 1 -x {0.0 2.0 1 ------- null}
h -t 1.10375 -s 0 -d 1 -p cbr -e 210 -c 1 -i 29 -a 1 -x {0.0 2.0 -1 ------- null}
r -t 1.10474 -s 1 -d 0 -p cbr -e 210 -c 0 -i 22 -a 0 -x {3.0 0.1 22 ------- null}
r -t 1.10487 -s 3 -d 1 -p cbr -e 210 -c 0 -i 25 -a 0 -x {3.0 0.1 25 ------- null}
+ -t 1.10487 -s 1 -d 0 -p cbr -e 210 -c 0 -i 25 -a 0 -x {3.0 0.1 25 ------- null}
- -t 1.10487 -s 1 -d 0 -p cbr -e 210 -c 0 -i 25 -a 0 -x {3.0 0.1 25 ------- null}
h -t 1.10487 -s 1 -d 0 -p cbr -e 210 -c 0 -i 25 -a 0 -x {3.0 0.1 -1 ------- null}
+ -t 1.105 -s 3 -d 1 -p cbr -e 210 -c 0 -i 30 -a 0 -x {3.0 0.1 28 ------- null}
- -t 1.105 -s 3 -d 1 -p cbr -e 210 -c 0 -i 30 -a 0 -x {3.0 0.1 28 ------- null}
h -t 1.105 -s 3 -d 1 -p cbr -e 210 -c 0 -i 30 -a 0 -x {3.0 0.1 -1 ------- null}
+ -t 1.1075 -s 0 -d 1 -p cbr -e 210 -c 1 -i 31 -a 1 -x {0.0 2.0 2 ------- null}
- -t 1.1075 -s 0 -d 1 -p cbr -e 210 -c 1 -i 31 -a 1 -x {0.0 2.0 2 ------- null}
h -t 1.1075 -s 0 -d 1 -p cbr -e 210 -c 1 -i 31 -a 1 -x {0.0 2.0 -1 ------- null}
r -t 1.10849 -s 1 -d 0 -p cbr -e 210 -c 0 -i 23 -a 0 -x {3.0 0.1 23 ------- null}
r -t 1.10862 -s 3 -d 1 -p cbr -e 210 -c 0 -i 26 -a 0 -x {3.0 0.1 26 ------- null}
+ -t 1.10862 -s 1 -d 0 -p cbr -e 210 -c 0 -i 26 -a 0 -x {3.0 0.1 26 ------- null}
- -t 1.10862 -s 1 -d 0 -p cbr -e 210 -c 0 -i 26 -a 0 -x {3.0 0.1 26 ------- null}
h -t 1.10862 -s 1 -d 0 -p cbr -e 210 -c 0 -i 26 -a 0 -x {3.0 0.1 -1 ------- null}
+ -t 1.10875 -s 3 -d 1 -p cbr -e 210 -c 0 -i 32 -a 0 -x {3.0 0.1 29 ------- null}
- -t 1.10875 -s 3 -d 1 -p cbr -e 210 -c 0 -i 32 -a 0 -x {3.0 0.1 29 ------- null}
h -t 1.10875 -s 3 -d 1 -p cbr -e 210 -c 0 -i 32 -a 0 -x {3.0 0.1 -1 ------- null}
r -t 1.11112 -s 0 -d 1 -p cbr -e 210 -c 1 -i 27 -a 1 -x {0.0 2.0 0 ------- null}
+ -t 1.11112 -s 1 -d 2 -p cbr -e 210 -c 1 -i 27 -a 1 -x {0.0 2.0 0 ------- null}
- -t 1.11112 -s 1 -d 2 -p cbr -e 210 -c 1 -i 27 -a 1 -x {0.0 2.0 0 ------- null}
h -t 1.11112 -s 1 -d 2 -p cbr -e 210 -c 1 -i 27 -a 1 -x {0.0 2.0 -1 ------- null}
+ -t 1.11125 -s 0 -d 1 -p cbr -e 210 -c 1 -i 33 -a 1 -x {0.0 2.0 3 ------- null}
- -t 1.11125 -s 0 -d 1 -p cbr -e 210 -c 1 -i 33 -a 1 -x {0.0 2.0 3 ------- null}
h -t 1.11125 -s 0 -d 1 -p cbr -e 210 -c 1 -i 33 -a 1 -x {0.0 2.0 -1 ------- null}
r -t 1.11224 -s 1 -d 0 -p cbr -e 210 -c 0 -i 24 -a 0 -x {3.0 0.1 24 ------- null}
r -t 1.11237 -s 3 -d 1 -p cbr -e 210 -c 0 -i 28 -a 0 -x {3.0 0.1 27 ------- null}
+ -t 1.11237 -s 1 -d 0 -p cbr -e 210 -c 0 -i 28 -a 0 -x {3.0 0.1 27 ------- null}
- -t 1.11237 -s 1 -d 0 -p cbr -e 210 -c 0 -i 28 -a 0 -x {3.0 0.1 27 ------- null}
h -t 1.11237 -s 1 -d 0 -p cbr -e 210 -c 0 -i 28 -a 0 -x {3.0 0.1 -1 ------- null}
+ -t 1.1125 -s 3 -d 1 -p cbr -e 210 -c 0 -i 34 -a 0 -x {3.0 0.1 30 ------- null}
- -t 1.1125 -s 3 -d 1 -p cbr -e 210 -c 0 -i 34 -a 0 -x {3.0 0.1 30 ------- null}
h -t 1.1125 -s 3 -d 1 -p cbr -e 210 -c 0 -i 34 -a 0 -x {3.0 0.1 -1 ------- null}
r -t 1.11487 -s 0 -d 1 -p cbr -e 210 -c 1 -i 29 -a 1 -x {0.0 2.0 1 ------- null}
+ -t 1.11487 -s 1 -d 2 -p cbr -e 210 -c 1 -i 29 -a 1 -x {0.0 2.0 1 ------- null}
- -t 1.11487 -s 1 -d 2 -p cbr -e 210 -c 1 -i 29 -a 1 -x {0.0 2.0 1 ------- null}
h -t 1.11487 -s 1 -d 2 -p cbr -e 210 -c 1 -i 29 -a 1 -x {0.0 2.0 -1 ------- null}
+ -t 1.115 -s 0 -d 1 -p cbr -e 210 -c 1 -i 35 -a 1 -x {0.0 2.0 4 ------- null}
- -t 1.115 -s 0 -d 1 -p cbr -e 210 -c 1 -i 35 -a 1 -x {0.0 2.0 4 ------- null}
h -t 1.115 -s 0 -d 1 -p cbr -e 210 -c 1 -i 35 -a 1 -x {0.0 2.0 -1 ------- null}
r -t 1.11599 -s 1 -d 0 -p cbr -e 210 -c 0 -i 25 -a 0 -x {3.0 0.1 25 ------- null}
r -t 1.11612 -s 3 -d 1 -p cbr -e 210 -c 0 -i 30 -a 0 -x {3.0 0.1 28 ------- null}
+ -t 1.11612 -s 1 -d 0 -p cbr -e 210 -c 0 -i 30 -a 0 -x {3.0 0.1 28 ------- null}
- -t 1.11612 -s 1 -d 0 -p cbr -e 210 -c 0 -i 30 -a 0 -x {3.0 0.1 28 ------- null}
h -t 1.11612 -s 1 -d 0 -p cbr -e 210 -c 0 -i 30 -a 0 -x {3.0 0.1 -1 ------- null}
+ -t 1.11625 -s 3 -d 1 -p cbr -e 210 -c 0 -i 36 -a 0 -x {3.0 0.1 31 ------- null}
- -t 1.11625 -s 3 -d 1 -p cbr -e 210 -c 0 -i 36 -a 0 -x {3.0 0.1 31 ------- null}
h -t 1.11625 -s 3 -d 1 -p cbr -e 210 -c 0 -i 36 -a 0 -x {3.0 0.1 -1 ------- null}
r -t 1.11862 -s 0 -d 1 -p cbr -e 210 -c 1 -i 31 -a 1 -x {0.0 2.0 2 ------- null}
+ -t 1.11862 -s 1 -d 2 -p cbr -e 210 -c 1 -i 31 -a 1 -x {0.0 2.0 2 ------- null}
- -t 1.11862 -s 1 -d 2 -p cbr -e 210 -c 1 -i 31 -a 1 -x {0.0 2.0 2 ------- null}
h -t 1.11862 -s 1 -d 2 -p cbr -e 210 -c 1 -i 31 -a 1 -x {0.0 2.0 -1 ------- null}
+ -t 1.11875 -s 0 -d 1 -p cbr -e 210 -c 1 -i 37 -a 1 -x {0.0 2.0 5 ------- null}
- -t 1.11875 -s 0 -d 1 -p cbr -e 210 -c 1 -i 37 -a 1 -x {0.0 2.0 5 ------- null}
h -t 1.11875 -s 0 -d 1 -p cbr -e 210 -c 1 -i 37 -a 1 -x {0.0 2.0 -1 ------- null}
r -t 1.11974 -s 1 -d 0 -p cbr -e 210 -c 0 -i 26 -a 0 -x {3.0 0.1 26 ------- null}
r -t 1.11987 -s 3 -d 1 -p cbr -e 210 -c 0 -i 32 -a 0 -x {3.0 0.1 29 ------- null}
+ -t 1.11987 -s 1 -d 0 -p cbr -e 210 -c 0 -i 32 -a 0 -x {3.0 0.1 29 ------- null}
- -t 1.11987 -s 1 -d 0 -p cbr -e 210 -c 0 -i 32 -a 0 -x {3.0 0.1 29 ------- null}
h -t 1.11987 -s 1 -d 0 -p cbr -e 210 -c 0 -i 32 -a 0 -x {3.0 0.1 -1 ------- null}
+ -t 1.12 -s 3 -d 1 -p cbr -e 210 -c 0 -i 38 -a 0 -x {3.0 0.1 32 ------- null}
- -t 1.12 -s 3 -d 1 -p cbr -e 210 -c 0 -i 38 -a 0 -x {3.0 0.1 32 ------- null}
h -t 1.12 -s 3 -d 1 -p cbr -e 210 -c 0 -i 38 -a 0 -x {3.0 0.1 -1 ------- null}
r -t 1.12224 -s 1 -d 2 -p cbr -e 210 -c 1 -i 27 -a 1 -x {0.0 2.0 0 ------- null}
r -t 1.12237 -s 0 -d 1 -p cbr -e 210 -c 1 -i 33 -a 1 -x {0.0 2.0 3 ------- null}
+ -t 1.12237 -s 1 -d 2 -p cbr -e 210 -c 1 -i 33 -a 1 -x {0.0 2.0 3 ------- null}
- -t 1.12237 -s 1 -d 2 -p cbr -e 210 -c 1 -i 33 -a 1 -x {0.0 2.0 3 ------- null}
h -t 1.12237 -s 1 -d 2 -p cbr -e 210 -c 1 -i 33 -a 1 -x {0.0 2.0 -1 ------- null}
+ -t 1.1225 -s 0 -d 1 -p cbr -e 210 -c 1 -i 39 -a 1 -x {0.0 2.0 6 ------- null}
- -t 1.1225 -s 0 -d 1 -p cbr -e 210 -c 1 -i 39 -a 1 -x {0.0 2.0 6 ------- null}
h -t 1.1225 -s 0 -d 1 -p cbr -e 210 -c 1 -i 39 -a 1 -x {0.0 2.0 -1 ------- null}
r -t 1.12349 -s 1 -d 0 -p cbr -e 210 -c 0 -i 28 -a 0 -x {3.0 0.1 27 ------- null}
r -t 1.12362 -s 3 -d 1 -p cbr -e 210 -c 0 -i 34 -a 0 -x {3.0 0.1 30 ------- null}
+ -t 1.12362 -s 1 -d 0 -p cbr -e 210 -c 0 -i 34 -a 0 -x {3.0 0.1 30 ------- null}
- -t 1.12362 -s 1 -d 0 -p cbr -e 210 -c 0 -i 34 -a 0 -x {3.0 0.1 30 ------- null}
h -t 1.12362 -s 1 -d 0 -p cbr -e 210 -c 0 -i 34 -a 0 -x {3.0 0.1 -1 ------- null}
+ -t 1.12375 -s 3 -d 1 -p cbr -e 210 -c 0 -i 40 -a 0 -x {3.0 0.1 33 ------- null}
- -t 1.12375 -s 3 -d 1 -p cbr -e 210 -c 0 -i 40 -a 0 -x {3.0 0.1 33 ------- null}
h -t 1.12375 -s 3 -d 1 -p cbr -e 210 -c 0 -i 40 -a 0 -x {3.0 0.1 -1 ------- null}
r -t 1.12599 -s 1 -d 2 -p cbr -e 210 -c 1 -i 29 -a 1 -x {0.0 2.0 1 ------- null}
r -t 1.12612 -s 0 -d 1 -p cbr -e 210 -c 1 -i 35 -a 1 -x {0.0 2.0 4 ------- null}
+ -t 1.12612 -s 1 -d 2 -p cbr -e 210 -c 1 -i 35 -a 1 -x {0.0 2.0 4 ------- null}
- -t 1.12612 -s 1 -d 2 -p cbr -e 210 -c 1 -i 35 -a 1 -x {0.0 2.0 4 ------- null}
h -t 1.12612 -s 1 -d 2 -p cbr -e 210 -c 1 -i 35 -a 1 -x {0.0 2.0 -1 ------- null}
+ -t 1.12625 -s 0 -d 1 -p cbr -e 210 -c 1 -i 41 -a 1 -x {0.0 2.0 7 ------- null}
- -t 1.12625 -s 0 -d 1 -p cbr -e 210 -c 1 -i 41 -a 1 -x {0.0 2.0 7 ------- null}
h -t 1.12625 -s 0 -d 1 -p cbr -e 210 -c 1 -i 41 -a 1 -x {0.0 2.0 -1 ------- null}
r -t 1.12724 -s 1 -d 0 -p cbr -e 210 -c 0 -i 30 -a 0 -x {3.0 0.1 28 ------- null}
r -t 1.12737 -s 3 -d 1 -p cbr -e 210 -c 0 -i 36 -a 0 -x {3.0 0.1 31 ------- null}
+ -t 1.12737 -s 1 -d 0 -p cbr -e 210 -c 0 -i 36 -a 0 -x {3.0 0.1 31 ------- null}
- -t 1.12737 -s 1 -d 0 -p cbr -e 210 -c 0 -i 36 -a 0 -x {3.0 0.1 31 ------- null}
h -t 1.12737 -s 1 -d 0 -p cbr -e 210 -c 0 -i 36 -a 0 -x {3.0 0.1 -1 ------- null}
+ -t 1.1275 -s 3 -d 1 -p cbr -e 210 -c 0 -i 42 -a 0 -x {3.0 0.1 34 ------- null}
- -t 1.1275 -s 3 -d 1 -p cbr -e 210 -c 0 -i 42 -a 0 -x {3.0 0.1 34 ------- null}
h -t 1.1275 -s 3 -d 1 -p cbr -e 210 -c 0 -i 42 -a 0 -x {3.0 0.1 -1 ------- null}
r -t 1.12974 -s 1 -d 2 -p cbr -e 210 -c 1 -i 31 -a 1 -x {0.0 2.0 2 ------- null}
r -t 1.12987 -s 0 -d 1 -p cbr -e 210 -c 1 -i 37 -a 1 -x {0.0 2.0 5 ------- null}
+ -t 1.12987 -s 1 -d 2 -p cbr -e 210 -c 1 -i 37 -a 1 -x {0.0 2.0 5 ------- null}
- -t 1.12987 -s 1 -d 2 -p cbr -e 210 -c 1 -i 37 -a 1 -x {0.0 2.0 5 ------- null}
h -t 1.12987 -s 1 -d 2 -p cbr -e 210 -c 1 -i 37 -a 1 -x {0.0 2.0 -1 ------- null}
+ -t 1.13 -s 0 -d 1 -p cbr -e 210 -c 1 -i 43 -a 1 -x {0.0 2.0 8 ------- null}
- -t 1.13 -s 0 -d 1 -p cbr -e 210 -c 1 -i 43 -a 1 -x {0.0 2.0 8 ------- null}
h -t 1.13 -s 0 -d 1 -p cbr -e 210 -c 1 -i 43 -a 1 -x {0.0 2.0 -1 ------- null}
r -t 1.13099 -s 1 -d 0 -p cbr -e 210 -c 0 -i 32 -a 0 -x {3.0 0.1 29 ------- null}
r -t 1.13112 -s 3 -d 1 -p cbr -e 210 -c 0 -i 38 -a 0 -x {3.0 0.1 32 ------- null}
+ -t 1.13112 -s 1 -d 0 -p cbr -e 210 -c 0 -i 38 -a 0 -x {3.0 0.1 32 ------- null}
- -t 1.13112 -s 1 -d 0 -p cbr -e 210 -c 0 -i 38 -a 0 -x {3.0 0.1 32 ------- null}
h -t 1.13112 -s 1 -d 0 -p cbr -e 210 -c 0 -i 38 -a 0 -x {3.0 0.1 -1 ------- null}
+ -t 1.13125 -s 3 -d 1 -p cbr -e 210 -c 0 -i 44 -a 0 -x {3.0 0.1 35 ------- null}
- -t 1.13125 -s 3 -d 1 -p cbr -e 210 -c 0 -i 44 -a 0 -x {3.0 0.1 35 ------- null}
h -t 1.13125 -s 3 -d 1 -p cbr -e 210 -c 0 -i 44 -a 0 -x {3.0 0.1 -1 ------- null}
r -t 1.13349 -s 1 -d 2 -p cbr -e 210 -c 1 -i 33 -a 1 -x {0.0 2.0 3 ------- null}
r -t 1.13362 -s 0 -d 1 -p cbr -e 210 -c 1 -i 39 -a 1 -x {0.0 2.0 6 ------- null}
+ -t 1.13362 -s 1 -d 2 -p cbr -e 210 -c 1 -i 39 -a 1 -x {0.0 2.0 6 ------- null}
- -t 1.13362 -s 1 -d 2 -p cbr -e 210 -c 1 -i 39 -a 1 -x {0.0 2.0 6 ------- null}
h -t 1.13362 -s 1 -d 2 -p cbr -e 210 -c 1 -i 39 -a 1 -x {0.0 2.0 -1 ------- null}
+ -t 1.13375 -s 0 -d 1 -p cbr -e 210 -c 1 -i 45 -a 1 -x {0.0 2.0 9 ------- null}
- -t 1.13375 -s 0 -d 1 -p cbr -e 210 -c 1 -i 45 -a 1 -x {0.0 2.0 9 ------- null}
h -t 1.13375 -s 0 -d 1 -p cbr -e 210 -c 1 -i 45 -a 1 -x {0.0 2.0 -1 ------- null}
r -t 1.13474 -s 1 -d 0 -p cbr -e 210 -c 0 -i 34 -a 0 -x {3.0 0.1 30 ------- null}
r -t 1.13487 -s 3 -d 1 -p cbr -e 210 -c 0 -i 40 -a 0 -x {3.0 0.1 33 ------- null}
+ -t 1.13487 -s 1 -d 0 -p cbr -e 210 -c 0 -i 40 -a 0 -x {3.0 0.1 33 ------- null}
- -t 1.13487 -s 1 -d 0 -p cbr -e 210 -c 0 -i 40 -a 0 -x {3.0 0.1 33 ------- null}
h -t 1.13487 -s 1 -d 0 -p cbr -e 210 -c 0 -i 40 -a 0 -x {3.0 0.1 -1 ------- null}
+ -t 1.135 -s 3 -d 1 -p cbr -e 210 -c 0 -i 46 -a 0 -x {3.0 0.1 36 ------- null}
- -t 1.135 -s 3 -d 1 -p cbr -e 210 -c 0 -i 46 -a 0 -x {3.0 0.1 36 ------- null}
h -t 1.135 -s 3 -d 1 -p cbr -e 210 -c 0 -i 46 -a 0 -x {3.0 0.1 -1 ------- null}
r -t 1.13724 -s 1 -d 2 -p cbr -e 210 -c 1 -i 35 -a 1 -x {0.0 2.0 4 ------- null}
r -t 1.13737 -s 0 -d 1 -p cbr -e 210 -c 1 -i 41 -a 1 -x {0.0 2.0 7 ------- null}
+ -t 1.13737 -s 1 -d 2 -p cbr -e 210 -c 1 -i 41 -a 1 -x {0.0 2.0 7 ------- null}
- -t 1.13737 -s 1 -d 2 -p cbr -e 210 -c 1 -i 41 -a 1 -x {0.0 2.0 7 ------- null}
h -t 1.13737 -s 1 -d 2 -p cbr -e 210 -c 1 -i 41 -a 1 -x {0.0 2.0 -1 ------- null}
+ -t 1.1375 -s 0 -d 1 -p cbr -e 210 -c 1 -i 47 -a 1 -x {0.0 2.0 10 ------- null}
- -t 1.1375 -s 0 -d 1 -p cbr -e 210 -c 1 -i 47 -a 1 -x {0.0 2.0 10 ------- null}
h -t 1.1375 -s 0 -d 1 -p cbr -e 210 -c 1 -i 47 -a 1 -x {0.0 2.0 -1 ------- null}
r -t 1.13849 -s 1 -d 0 -p cbr -e 210 -c 0 -i 36 -a 0 -x {3.0 0.1 31 ------- null}
r -t 1.13862 -s 3 -d 1 -p cbr -e 210 -c 0 -i 42 -a 0 -x {3.0 0.1 34 ------- null}
+ -t 1.13862 -s 1 -d 0 -p cbr -e 210 -c 0 -i 42 -a 0 -x {3.0 0.1 34 ------- null}
- -t 1.13862 -s 1 -d 0 -p cbr -e 210 -c 0 -i 42 -a 0 -x {3.0 0.1 34 ------- null}
h -t 1.13862 -s 1 -d 0 -p cbr -e 210 -c 0 -i 42 -a 0 -x {3.0 0.1 -1 ------- null}
+ -t 1.13875 -s 3 -d 1 -p cbr -e 210 -c 0 -i 48 -a 0 -x {3.0 0.1 37 ------- null}
- -t 1.13875 -s 3 -d 1 -p cbr -e 210 -c 0 -i 48 -a 0 -x {3.0 0.1 37 ------- null}
h -t 1.13875 -s 3 -d 1 -p cbr -e 210 -c 0 -i 48 -a 0 -x {3.0 0.1 -1 ------- null}
r -t 1.14099 -s 1 -d 2 -p cbr -e 210 -c 1 -i 37 -a 1 -x {0.0 2.0 5 ------- null}
r -t 1.14112 -s 0 -d 1 -p cbr -e 210 -c 1 -i 43 -a 1 -x {0.0 2.0 8 ------- null}
+ -t 1.14112 -s 1 -d 2 -p cbr -e 210 -c 1 -i 43 -a 1 -x {0.0 2.0 8 ------- null}
- -t 1.14112 -s 1 -d 2 -p cbr -e 210 -c 1 -i 43 -a 1 -x {0.0 2.0 8 ------- null}
h -t 1.14112 -s 1 -d 2 -p cbr -e 210 -c 1 -i 43 -a 1 -x {0.0 2.0 -1 ------- null}
+ -t 1.14125 -s 0 -d 1 -p cbr -e 210 -c 1 -i 49 -a 1 -x {0.0 2.0 11 ------- null}
- -t 1.14125 -s 0 -d 1 -p cbr -e 210 -c 1 -i 49 -a 1 -x {0.0 2.0 11 ------- null}